# vtk DataFile Version 2.0
Exported solution
ASCII
DATASET STRUCTURED_POINTS
DIMENSIONS 7 3 1
SPACING 0.5 0.5 1
ORIGIN 0 0 0
POINT_DATA 21
SCALARS kai double 1
LOOKUP_TABLE default
0.0216213
0.00495421
0.021693
0.00542717
0.00332472
0.260989
0.0216336
0.00497375
0.0216836
0.0218553
0.0118367
1e-09
