# vtk DataFile Version 2.0
Exported solution
ASCII
DATASET STRUCTURED_POINTS
DIMENSIONS 3 3 3
SPACING 0.5 0.5 0.5
ORIGIN 0 0 0
POINT_DATA 27
SCALARS chi double 1
LOOKUP_TABLE default
0
0
0
0
0
0
0
0
