# vtk DataFile Version 2.0
Thermodynamics Topology Optimzation
ASCII
DATASET STRUCTURED_POINTS
DIMENSIONS 4 4 1
SPACING 0.25 0.25 1
ORIGIN 0 0 0
POINT_DATA 16
SCALARS chi double 1
LOOKUP_TABLE default
0.359975
0.366443
0.419891
1
0.358913
0.359054
0.394939
0.372407
0.356649
0.357001
0.348415
0.33687
0.355831
0.35124
0.338522
0.323849
