# vtk DataFile Version 2.0
Thermodynamics Topology Optimzation
ASCII

DATASET STRUCTURED_GRID
DIMENSIONS 13 5 1
POINTS 65 float
 0 0 0
 0.25 0 0
 0.5 0 0
 0.75 0 0
 1 0 0
 1.25 0 0
 1.5 0 0
 1.75 0 0
 2 0 0
 2.25 0 0
 2.5 0 0
 2.75 0 0
 3 0 0
 0 0.25 0
 0.25 0.25 0
 0.5 0.25 0
 0.75 0.25 0
 1 0.25 0
 1.25 0.25 0
 1.5 0.25 0
 1.75 0.25 0
 2 0.25 0
 2.25 0.25 0
 2.5 0.25 0
 2.75 0.25 0
 3 0.25 0
 0 0.5 0
 0.25 0.5 0
 0.5 0.5 0
 0.75 0.5 0
 1 0.5 0
 1.25 0.5 0
 1.5 0.5 0
 1.75 0.5 0
 2 0.5 0
 2.25 0.5 0
 2.5 0.5 0
 2.75 0.5 0
 3 0.5 0
 0 0.75 0
 0.25 0.75 0
 0.5 0.75 0
 0.75 0.75 0
 1 0.75 0
 1.25 0.75 0
 1.5 0.75 0
 1.75 0.75 0
 2 0.75 0
 2.25 0.75 0
 2.5 0.75 0
 2.75 0.75 0
 3 0.75 0
 0 1 0
 0.25 1 0
 0.5 1 0
 0.75 1 0
 1 1 0
 1.25 1 0
 1.5 1 0
 1.75 1 0
 2 1 0
 2.25 1 0
 2.5 1 0
 2.75 1 0
 3 1 0

CELL_DATA 48
SCALARS chi double
LOOKUP_TABLE default
 0.4
 0.4
 0.4
 0.4
 0.4
 0.4
 0.4
 0.4
 0.4
 0.4
 0.4
 0.4
 0.4
 0.4
 0.4
 0.4
 0.4
 0.4
 0.4
 0.4
 0.4
 0.4
 0.4
 0.4
 0.4
 0.4
 0.4
 0.4
 0.4
 0.4
 0.4
 0.4
 0.4
 0.4
 0.4
 0.4
 0.4
 0.4
 0.4
 0.4
 0.4
 0.4
 0.4
 0.4
 0.4
 0.4
 0.4
 0.4

POINT_DATA 65
VECTORS displacements double
 0 0 0
 0 0 0
 0 0 0
 0 0 0
 0 0 0
 0 0 0
 0 0 0
 0 0 0
 0 0 0
 0 0 0
 0 0 0
 0 0 0
 0 0 0
 0 0 0
 0 0 0
 0 0 0
 0 0 0
 0 0 0
 0 0 0
 0 0 0
 0 0 0
 0 0 0
 0 0 0
 0 0 0
 0 0 0
 0 0 0
 0 0 0
 0 0 0
 0 0 0
 0 0 0
 0 0 0
 0 0 0
 0 0 0
 0 0 0
 0 0 0
 0 0 0
 0 0 0
 0 0 0
 0 0 0
 0 0 0
 0 0 0
 0 0 0
 0 0 0
 0 0 0
 0 0 0
 0 0 0
 0 0 0
 0 0 0
 0 0 0
 0 0 0
 0 0 0
 0 0 0
 0 0 0
 0 0 0
 0 0 0
 0 0 0
 0 0 0
 0 0 0
 0 0 0
 0 0 0
 0 0 0
 0 0 0
 0 0 0
 0 0 0
 0 0 0
