# vtk DataFile Version 2.0
Thermodynamics Topology Optimzation
ASCII

DATASET STRUCTURED_GRID
DIMENSIONS 25 9 1
POINTS 225 float
 0 0 0
 0.125 0 0
 0.25 0 0
 0.375 0 0
 0.5 0 0
 0.625 0 0
 0.75 0 0
 0.875 0 0
 1 0 0
 1.125 0 0
 1.25 0 0
 1.375 0 0
 1.5 0 0
 1.625 0 0
 1.75 0 0
 1.875 0 0
 2 0 0
 2.125 0 0
 2.25 0 0
 2.375 0 0
 2.5 0 0
 2.625 0 0
 2.75 0 0
 2.875 0 0
 3 0 0
 0 0.125 0
 0.125 0.125 0
 0.25 0.125 0
 0.375 0.125 0
 0.5 0.125 0
 0.625 0.125 0
 0.75 0.125 0
 0.875 0.125 0
 1 0.125 0
 1.125 0.125 0
 1.25 0.125 0
 1.375 0.125 0
 1.5 0.125 0
 1.625 0.125 0
 1.75 0.125 0
 1.875 0.125 0
 2 0.125 0
 2.125 0.125 0
 2.25 0.125 0
 2.375 0.125 0
 2.5 0.125 0
 2.625 0.125 0
 2.75 0.125 0
 2.875 0.125 0
 3 0.125 0
 0 0.25 0
 0.125 0.25 0
 0.25 0.25 0
 0.375 0.25 0
 0.5 0.25 0
 0.625 0.25 0
 0.75 0.25 0
 0.875 0.25 0
 1 0.25 0
 1.125 0.25 0
 1.25 0.25 0
 1.375 0.25 0
 1.5 0.25 0
 1.625 0.25 0
 1.75 0.25 0
 1.875 0.25 0
 2 0.25 0
 2.125 0.25 0
 2.25 0.25 0
 2.375 0.25 0
 2.5 0.25 0
 2.625 0.25 0
 2.75 0.25 0
 2.875 0.25 0
 3 0.25 0
 0 0.375 0
 0.125 0.375 0
 0.25 0.375 0
 0.375 0.375 0
 0.5 0.375 0
 0.625 0.375 0
 0.75 0.375 0
 0.875 0.375 0
 1 0.375 0
 1.125 0.375 0
 1.25 0.375 0
 1.375 0.375 0
 1.5 0.375 0
 1.625 0.375 0
 1.75 0.375 0
 1.875 0.375 0
 2 0.375 0
 2.125 0.375 0
 2.25 0.375 0
 2.375 0.375 0
 2.5 0.375 0
 2.625 0.375 0
 2.75 0.375 0
 2.875 0.375 0
 3 0.375 0
 0 0.5 0
 0.125 0.5 0
 0.25 0.5 0
 0.375 0.5 0
 0.5 0.5 0
 0.625 0.5 0
 0.75 0.5 0
 0.875 0.5 0
 1 0.5 0
 1.125 0.5 0
 1.25 0.5 0
 1.375 0.5 0
 1.5 0.5 0
 1.625 0.5 0
 1.75 0.5 0
 1.875 0.5 0
 2 0.5 0
 2.125 0.5 0
 2.25 0.5 0
 2.375 0.5 0
 2.5 0.5 0
 2.625 0.5 0
 2.75 0.5 0
 2.875 0.5 0
 3 0.5 0
 0 0.625 0
 0.125 0.625 0
 0.25 0.625 0
 0.375 0.625 0
 0.5 0.625 0
 0.625 0.625 0
 0.75 0.625 0
 0.875 0.625 0
 1 0.625 0
 1.125 0.625 0
 1.25 0.625 0
 1.375 0.625 0
 1.5 0.625 0
 1.625 0.625 0
 1.75 0.625 0
 1.875 0.625 0
 2 0.625 0
 2.125 0.625 0
 2.25 0.625 0
 2.375 0.625 0
 2.5 0.625 0
 2.625 0.625 0
 2.75 0.625 0
 2.875 0.625 0
 3 0.625 0
 0 0.75 0
 0.125 0.75 0
 0.25 0.75 0
 0.375 0.75 0
 0.5 0.75 0
 0.625 0.75 0
 0.75 0.75 0
 0.875 0.75 0
 1 0.75 0
 1.125 0.75 0
 1.25 0.75 0
 1.375 0.75 0
 1.5 0.75 0
 1.625 0.75 0
 1.75 0.75 0
 1.875 0.75 0
 2 0.75 0
 2.125 0.75 0
 2.25 0.75 0
 2.375 0.75 0
 2.5 0.75 0
 2.625 0.75 0
 2.75 0.75 0
 2.875 0.75 0
 3 0.75 0
 0 0.875 0
 0.125 0.875 0
 0.25 0.875 0
 0.375 0.875 0
 0.5 0.875 0
 0.625 0.875 0
 0.75 0.875 0
 0.875 0.875 0
 1 0.875 0
 1.125 0.875 0
 1.25 0.875 0
 1.375 0.875 0
 1.5 0.875 0
 1.625 0.875 0
 1.75 0.875 0
 1.875 0.875 0
 2 0.875 0
 2.125 0.875 0
 2.25 0.875 0
 2.375 0.875 0
 2.5 0.875 0
 2.625 0.875 0
 2.75 0.875 0
 2.875 0.875 0
 3 0.875 0
 0 1 0
 0.125 1 0
 0.25 1 0
 0.375 1 0
 0.5 1 0
 0.625 1 0
 0.75 1 0
 0.875 1 0
 1 1 0
 1.125 1 0
 1.25 1 0
 1.375 1 0
 1.5 1 0
 1.625 1 0
 1.75 1 0
 1.875 1 0
 2 1 0
 2.125 1 0
 2.25 1 0
 2.375 1 0
 2.5 1 0
 2.625 1 0
 2.75 1 0
 2.875 1 0
 3 1 0

CELL_DATA 192
SCALARS chi double
LOOKUP_TABLE default
 0.77926
 0.763884
 0.736342
 0.701512
 0.664011
 0.627025
 0.592179
 0.559988
 0.530411
 0.503217
 0.47818
 0.455138
 0.434004
 0.414758
 0.397433
 0.382104
 0.368874
 0.357859
 0.349179
 0.343005
 0.339645
 0.34072
 0.348307
 0.62464
 0.550669
 0.543532
 0.530691
 0.514348
 0.496589
 0.47885
 0.461861
 0.445895
 0.431006
 0.41717
 0.404345
 0.392493
 0.381583
 0.371588
 0.362484
 0.35424
 0.346815
 0.340151
 0.334171
 0.328802
 0.324059
 0.320627
 0.335089
 0.444123
 0.410841
 0.407951
 0.402825
 0.396494
 0.389906
 0.383556
 0.377572
 0.371929
 0.366597
 0.36157
 0.356854
 0.352447
 0.348339
 0.344501
 0.340892
 0.337456
 0.334142
 0.330935
 0.327936
 0.325542
 0.324843
 0.329567
 0.346026
 0.372205
 0.34074
 0.341093
 0.340955
 0.340074
 0.338873
 0.337748
 0.33679
 0.335935
 0.335138
 0.334378
 0.333651
 0.332956
 0.332288
 0.331634
 0.33098
 0.330311
 0.329642
 0.32906
 0.328803
 0.329359
 0.331556
 0.335646
 0.339588
 0.341505
 0.33187
 0.337319
 0.341568
 0.342192
 0.340599
 0.338915
 0.337462
 0.336269
 0.335267
 0.3344
 0.333631
 0.332945
 0.332339
 0.331826
 0.331429
 0.331185
 0.331152
 0.33141
 0.332051
 0.333091
 0.334149
 0.334101
 0.331501
 0.326812
 0.384719
 0.402653
 0.41044
 0.401814
 0.393012
 0.385136
 0.378261
 0.372137
 0.317992
 0.361456
 0.35673
 0.352376
 0.348401
 0.34483
 0.341708
 0.339091
 0.337036
 0.335559
 0.33456
 0.333669
 0.332148
 0.329195
 0.324816
 0.320224
 0.522312
 0.583586
 0.540524
 0.513433
 0.492578
 0.474911
 0.458927
 0.44399
 0.429884
 0.416568
 0.404058
 0.392388
 0.381587
 0.371682
 0.3627
 0.354669
 0.347616
 0.341552
 0.336421
 0.332018
 0.327956
 0.323907
 0.320217
 0.317872
 1
 0.761463
 0.696964
 0.664959
 0.636452
 0.608927
 0.581415
 0.554179
 0.527628
 0.50214
 0.477994
 0.455364
 0.434337
 0.414933
 0.397119
 0.380831
 0.366009
 0.352658
 0.340945
 0.331257
 0.324111
 0.319778
 0.31785
 0.317381

POINT_DATA 225
VECTORS displacements double
 0 -8.78414e-09 0
 1.60148e-10 -8.76128e-09 0
 3.1749e-10 -8.6934e-09 0
 4.69699e-10 -8.58247e-09 0
 6.15198e-10 -8.43122e-09 0
 7.53169e-10 -8.24261e-09 0
 8.83364e-10 -8.01948e-09 0
 1.00586e-09 -7.76435e-09 0
 1.12084e-09 -7.47945e-09 0
 1.22852e-09 -7.16677e-09 0
 1.32904e-09 -6.82817e-09 0
 1.42251e-09 -6.46542e-09 0
 1.50898e-09 -6.08027e-09 0
 1.5885e-09 -5.67449e-09 0
 1.66111e-09 -5.24983e-09 0
 1.72691e-09 -4.80809e-09 0
 1.78604e-09 -4.35104e-09 0
 1.8388e-09 -3.88043e-09 0
 1.88574e-09 -3.39786e-09 0
 1.9278e-09 -2.90464e-09 0
 1.96662e-09 -2.40127e-09 0
 2.00511e-09 -1.88682e-09 0
 2.04925e-09 -1.35342e-09 0
 2.1068e-09 -7.88717e-10 0
 2.1677e-09 0 0
 0 -8.82651e-09 0
 1.17466e-10 -8.80322e-09 0
 2.33031e-10 -8.73418e-09 0
 3.45117e-10 -8.62156e-09 0
 4.52639e-10 -8.46834e-09 0
 5.54998e-10 -8.27768e-09 0
 6.51943e-10 -8.05253e-09 0
 7.43426e-10 -7.79543e-09 0
 8.29486e-10 -7.50862e-09 0
 9.10185e-10 -7.19407e-09 0
 9.8558e-10 -6.85362e-09 0
 1.05572e-09 -6.48903e-09 0
 1.12062e-09 -6.10206e-09 0
 1.18034e-09 -5.69446e-09 0
 1.23488e-09 -5.26799e-09 0
 1.28432e-09 -4.82445e-09 0
 1.32874e-09 -4.36564e-09 0
 1.36828e-09 -3.89334e-09 0
 1.40314e-09 -3.40919e-09 0
 1.43358e-09 -2.91455e-09 0
 1.4598e-09 -2.41006e-09 0
 1.48144e-09 -1.89433e-09 0
 1.49611e-09 -1.36264e-09 0
 1.49326e-09 -7.85882e-10 0
 1.50595e-09 -1.72463e-10 0
 0 -8.85885e-09 0
 7.89901e-11 -8.83502e-09 0
 1.56321e-10 -8.76455e-09 0
 2.30787e-10 -8.65006e-09 0
 3.01795e-10 -8.49493e-09 0
 3.69207e-10 -8.30255e-09 0
 4.33081e-10 -8.07587e-09 0
 4.93497e-10 -7.8174e-09 0
 5.50494e-10 -7.52928e-09 0
 6.04076e-10 -7.21346e-09 0
 6.54234e-10 -6.87173e-09 0
 7.00954e-10 -6.50587e-09 0
 7.44226e-10 -6.1176e-09 0
 7.8404e-10 -5.70868e-09 0
 8.20386e-10 -5.28088e-09 0
 8.53245e-10 -4.83598e-09 0
 8.82582e-10 -4.37577e-09 0
 9.08324e-10 -3.90199e-09 0
 9.30319e-10 -3.41628e-09 0
 9.48237e-10 -2.91994e-09 0
 9.6137e-10 -2.41344e-09 0
 9.68402e-10 -1.89579e-09 0
 9.67402e-10 -1.36161e-09 0
 9.66216e-10 -8.09272e-10 0
 9.78783e-10 -2.70776e-10 0
 0 -8.88389e-09 0
 4.31131e-11 -8.8591e-09 0
 8.42967e-11 -8.78624e-09 0
 1.2254e-10 -8.66895e-09 0
 1.57863e-10 -8.51144e-09 0
 1.90816e-10 -8.31736e-09 0
 2.21913e-10 -8.08953e-09 0
 2.51435e-10 -7.83022e-09 0
 2.79458e-10 -7.54141e-09 0
 3.05957e-10 -7.22491e-09 0
 3.30877e-10 -6.88249e-09 0
 3.54163e-10 -6.5159e-09 0
 3.75768e-10 -6.12687e-09 0
 3.95645e-10 -5.71714e-09 0
 4.1374e-10 -5.28846e-09 0
 4.29971e-10 -4.84259e-09 0
 4.44206e-10 -4.38128e-09 0
 4.56235e-10 -3.90626e-09 0
 4.65731e-10 -3.4191e-09 0
 4.72221e-10 -2.92111e-09 0
 4.7514e-10 -2.41306e-09 0
 4.74207e-10 -1.89484e-09 0
 4.71625e-10 -1.36712e-09 0
 4.72984e-10 -8.37881e-10 0
 4.82316e-10 -3.28878e-10 0
 0 -8.90386e-09 0
 8.76125e-12 -8.87722e-09 0
 1.46568e-11 -8.80005e-09 0
 1.68686e-11 -8.67837e-09 0
 1.65669e-11 -8.51783e-09 0
 1.52402e-11 -8.32212e-09 0
 1.38744e-11 -8.09359e-09 0
 1.28057e-11 -7.83401e-09 0
 1.20832e-11 -7.54507e-09 0
 1.16463e-11 -7.22847e-09 0
 1.14113e-11 -6.88592e-09 0
 1.1302e-11 -6.51914e-09 0
 1.12544e-11 -6.12987e-09 0
 1.12082e-11 -5.71982e-09 0
 1.10906e-11 -5.29074e-09 0
 1.07967e-11 -4.84435e-09 0
 1.01667e-11 -4.38236e-09 0
 8.96825e-12 -3.90647e-09 0
 6.89936e-12 -3.4183e-09 0
 3.66028e-12 -2.91937e-09 0
 -8.18787e-13 -2.41108e-09 0
 -5.75824e-12 -1.89521e-09 0
 -9.01295e-12 -1.37554e-09 0
 -7.84061e-12 -8.6051e-10 0
 -1.80094e-12 -3.64202e-10 0
 0 -8.92132e-09 0
 -2.48292e-11 -8.89076e-09 0
 -5.49499e-11 -8.80561e-09 0
 -8.99475e-11 -8.67739e-09 0
 -1.26586e-10 -8.51353e-09 0
 -1.61966e-10 -8.31679e-09 0
 -1.95344e-10 -8.08817e-09 0
 -2.26581e-10 -7.82891e-09 0
 -2.55739e-10 -7.5404e-09 0
 -2.82912e-10 -7.22423e-09 0
 -3.08188e-10 -6.88207e-09 0
 -3.31632e-10 -6.51563e-09 0
 -3.53297e-10 -6.12663e-09 0
 -3.7323e-10 -5.7168e-09 0
 -3.91486e-10 -5.28783e-09 0
 -4.08145e-10 -4.84144e-09 0
 -4.23325e-10 -4.37931e-09 0
 -4.37186e-10 -3.90313e-09 0
 -4.49901e-10 -3.41465e-09 0
 -4.61553e-10 -2.91571e-09 0
 -4.71912e-10 -2.40848e-09 0
 -4.80164e-10 -1.89595e-09 0
 -4.84949e-10 -1.38273e-09 0
 -4.85271e-10 -8.75732e-10 0
 -4.82203e-10 -3.84004e-10 0
 0 -8.94073e-09 0
 -5.87433e-11 -8.90071e-09 0
 -1.27848e-10 -8.80001e-09 0
 -2.03793e-10 -8.66369e-09 0
 -2.76426e-10 -8.49819e-09 0
 -3.4503e-10 -8.30145e-09 0
 -4.09689e-10 -8.07352e-09 0
 -4.706e-10 -7.81514e-09 0
 -5.27889e-10 -7.52756e-09 0
 -5.81628e-10 -7.2123e-09 0
 -6.31856e-10 -6.87102e-09 0
 -6.78597e-10 -6.50541e-09 0
 -7.21864e-10 -6.11721e-09 0
 -7.61667e-10 -5.70811e-09 0
 -7.98019e-10 -5.27982e-09 0
 -8.30938e-10 -4.83403e-09 0
 -8.60451e-10 -4.37241e-09 0
 -8.86589e-10 -3.89667e-09 0
 -9.09362e-10 -3.40868e-09 0
 -9.28706e-10 -2.91056e-09 0
 -9.44386e-10 -2.40502e-09 0
 -9.55951e-10 -1.89563e-09 0
 -9.62872e-10 -1.38699e-09 0
 -9.65109e-10 -8.8437e-10 0
 -9.64394e-10 -3.92771e-10 0
 0 -8.97792e-09 0
 -9.31396e-11 -8.90185e-09 0
 -2.1815e-10 -8.77465e-09 0
 -3.31326e-10 -8.63748e-09 0
 -4.37177e-10 -8.47216e-09 0
 -5.37371e-10 -8.27659e-09 0
 -6.32519e-10 -8.04994e-09 0
 -7.22744e-10 -7.79289e-09 0
 -8.08018e-10 -7.50666e-09 0
 -8.88275e-10 -7.19274e-09 0
 -9.63455e-10 -6.85279e-09 0
 -1.03351e-09 -6.4885e-09 0
 -1.09841e-09 -6.10159e-09 0
 -1.15812e-09 -5.69378e-09 0
 -1.21261e-09 -5.26675e-09 0
 -1.26183e-09 -4.82219e-09 0
 -1.30569e-09 -4.36178e-09 0
 -1.34407e-09 -3.88726e-09 0
 -1.37677e-09 -3.40056e-09 0
 -1.40359e-09 -2.90396e-09 0
 -1.42428e-09 -2.40039e-09 0
 -1.43881e-09 -1.89361e-09 0
 -1.44746e-09 -1.38806e-09 0
 -1.45115e-09 -8.87941e-10 0
 -1.45183e-09 -3.94832e-10 0
 0 -9.07574e-09 0
 -1.88158e-10 -8.85376e-09 0
 -3.35725e-10 -8.73843e-09 0
 -4.74869e-10 -8.60025e-09 0
 -6.10243e-10 -8.43673e-09 0
 -7.41002e-10 -8.2426e-09 0
 -8.66506e-10 -8.01756e-09 0
 -9.86184e-10 -7.76218e-09 0
 -1.09963e-09 -7.47767e-09 0
 -1.20657e-09 -7.16552e-09 0
 -1.30682e-09 -6.82735e-09 0
 -1.40028e-09 -6.46486e-09 0
 -1.48689e-09 -6.07976e-09 0
 -1.56659e-09 -5.67376e-09 0
 -1.63936e-09 -5.24856e-09 0
 -1.70508e-09 -4.80585e-09 0
 -1.76362e-09 -4.34732e-09 0
 -1.81467e-09 -3.87475e-09 0
 -1.85781e-09 -3.39012e-09 0
 -1.89246e-09 -2.89577e-09 0
 -1.91805e-09 -2.39463e-09 0
 -1.93439e-09 -1.89037e-09 0
 -1.94229e-09 -1.38717e-09 0
 -1.94424e-09 -8.88594e-10 0
 -1.9442e-09 -3.948e-10 0
