# vtk DataFile Version 2.0
Thermodynamics Topology Optimzation
ASCII
DATASET STRUCTURED_POINTS
DIMENSIONS 6 2 1
SPACING 0.5 0.5 1
ORIGIN 0 0 0
POINT_DATA 12
SCALARS chi double 1
LOOKUP_TABLE default
1e-09
0.412544
0.122432
0.146999
1
1
1
0.0969381
0.14098
0.133833
0.746274
1e-09
