# vtk DataFile Version 2.0
Thermodynamics Topology Optimzation
ASCII

DATASET STRUCTURED_GRID
DIMENSIONS 13 5 1
POINTS 65 float
 0 0 0
 0.25 0 0
 0.5 0 0
 0.75 0 0
 1 0 0
 1.25 0 0
 1.5 0 0
 1.75 0 0
 2 0 0
 2.25 0 0
 2.5 0 0
 2.75 0 0
 3 0 0
 0 0.25 0
 0.25 0.25 0
 0.5 0.25 0
 0.75 0.25 0
 1 0.25 0
 1.25 0.25 0
 1.5 0.25 0
 1.75 0.25 0
 2 0.25 0
 2.25 0.25 0
 2.5 0.25 0
 2.75 0.25 0
 3 0.25 0
 0 0.5 0
 0.25 0.5 0
 0.5 0.5 0
 0.75 0.5 0
 1 0.5 0
 1.25 0.5 0
 1.5 0.5 0
 1.75 0.5 0
 2 0.5 0
 2.25 0.5 0
 2.5 0.5 0
 2.75 0.5 0
 3 0.5 0
 0 0.75 0
 0.25 0.75 0
 0.5 0.75 0
 0.75 0.75 0
 1 0.75 0
 1.25 0.75 0
 1.5 0.75 0
 1.75 0.75 0
 2 0.75 0
 2.25 0.75 0
 2.5 0.75 0
 2.75 0.75 0
 3 0.75 0
 0 1 0
 0.25 1 0
 0.5 1 0
 0.75 1 0
 1 1 0
 1.25 1 0
 1.5 1 0
 1.75 1 0
 2 1 0
 2.25 1 0
 2.5 1 0
 2.75 1 0
 3 1 0

CELL_DATA 48
SCALARS chi double
LOOKUP_TABLE default
 0.661922
 0.62416
 0.569427
 0.516175
 0.470792
 0.432459
 0.400067
 0.37337
 0.352524
 0.338012
 0.329788
 0.397385
 0.377024
 0.373593
 0.365604
 0.357559
 0.350893
 0.344962
 0.339783
 0.335167
 0.330875
 0.327342
 0.33059
 0.346652
 0.363161
 0.382034
 0.366681
 0.35776
 0.350732
 0.344813
 0.339839
 0.336009
 0.333712
 0.333395
 0.332137
 0.324094
 0.720259
 0.604525
 0.552979
 0.510396
 0.469572
 0.432624
 0.400482
 0.37342
 0.351276
 0.334068
 0.322646
 0.317259

POINT_DATA 65
VECTORS displacements double
 0 -8.47555e-09 0
 3.07788e-10 -8.38808e-09 0
 5.98121e-10 -8.13404e-09 0
 8.60778e-10 -7.733e-09 0
 1.09343e-09 -7.20573e-09 0
 1.29708e-09 -6.56957e-09 0
 1.47298e-09 -5.83908e-09 0
 1.62166e-09 -5.028e-09 0
 1.74378e-09 -4.1502e-09 0
 1.84137e-09 -3.21959e-09 0
 1.92065e-09 -2.24481e-09 0
 1.99253e-09 -1.23119e-09 0
 2.05592e-09 0 0
 0 -8.54941e-09 0
 1.51898e-10 -8.45845e-09 0
 2.94032e-10 -8.19686e-09 0
 4.22527e-10 -7.78815e-09 0
 5.37118e-10 -7.25431e-09 0
 6.38542e-10 -6.61213e-09 0
 7.26577e-10 -5.87556e-09 0
 8.01102e-10 -5.0583e-09 0
 8.61969e-10 -4.17427e-09 0
 9.08652e-10 -3.23699e-09 0
 9.39132e-10 -2.25847e-09 0
 9.43715e-10 -1.22753e-09 0
 9.57127e-10 -1.69999e-10 0
 0 -8.59371e-09 0
 1.4222e-11 -8.49442e-09 0
 1.79797e-11 -8.21973e-09 0
 1.42204e-11 -7.80483e-09 0
 1.2101e-11 -7.26958e-09 0
 1.13603e-11 -6.62598e-09 0
 1.12739e-11 -5.88763e-09 0
 1.12236e-11 -5.06802e-09 0
 1.03582e-11 -4.1807e-09 0
 6.95976e-12 -3.23919e-09 0
 -1.69259e-12 -2.25466e-09 0
 -8.69948e-12 -1.24282e-09 0
 -1.97338e-12 -2.54632e-10 0
 0 -8.63126e-09 0
 -1.19815e-10 -8.49687e-09 0
 -2.68196e-10 -8.19806e-09 0
 -3.9881e-10 -7.78505e-09 0
 -5.14521e-10 -7.25227e-09 0
 -6.16204e-10 -6.61142e-09 0
 -7.04205e-10 -5.87532e-09 0
 -7.78646e-10 -5.05741e-09 0
 -8.39705e-10 -4.1709e-09 0
 -8.87839e-10 -3.22911e-09 0
 -9.22428e-10 -2.24848e-09 0
 -9.40848e-10 -1.25502e-09 0
 -9.43579e-10 -2.84095e-10 0
 0 -8.70322e-09 0
 -3.21332e-10 -8.42396e-09 0
 -5.94178e-10 -8.13986e-09 0
 -8.44274e-10 -7.72987e-09 0
 -1.07208e-09 -7.20342e-09 0
 -1.27469e-09 -6.56866e-09 0
 -1.45088e-09 -5.83868e-09 0
 -1.60011e-09 -5.02678e-09 0
 -1.7217e-09 -4.14613e-09 0
 -1.81351e-09 -3.21064e-09 0
 -1.87184e-09 -2.23852e-09 0
 -1.89639e-09 -1.25629e-09 0
 -1.9005e-09 -2.88529e-10 0
