# vtk DataFile Version 2.0
Thermodynamics Topology Optimzation
ASCII
DATASET STRUCTURED_POINTS
DIMENSIONS 6 2 1
SPACING 0.5 0.5 1
ORIGIN 0 0 0
POINT_DATA 12
SCALARS chi double 1
LOOKUP_TABLE default
0.333222
0.375079
0.371106
0.37163
0.3839
0.588505
0.556967
0.370498
0.371506
0.371356
0.377022
0.32921
