# vtk DataFile Version 2.0
Thermodynamics Topology Optimzation
ASCII

DATASET STRUCTURED_GRID
DIMENSIONS 25 9 1
POINTS 225 float
 0 0 0
 0.025 0 0
 0.05 0 0
 0.075 0 0
 0.1 0 0
 0.125 0 0
 0.15 0 0
 0.175 0 0
 0.2 0 0
 0.225 0 0
 0.25 0 0
 0.275 0 0
 0.3 0 0
 0.325 0 0
 0.35 0 0
 0.375 0 0
 0.4 0 0
 0.425 0 0
 0.45 0 0
 0.475 0 0
 0.5 0 0
 0.525 0 0
 0.55 0 0
 0.575 0 0
 0.6 0 0
 0 0.025 0
 0.025 0.025 0
 0.05 0.025 0
 0.075 0.025 0
 0.1 0.025 0
 0.125 0.025 0
 0.15 0.025 0
 0.175 0.025 0
 0.2 0.025 0
 0.225 0.025 0
 0.25 0.025 0
 0.275 0.025 0
 0.3 0.025 0
 0.325 0.025 0
 0.35 0.025 0
 0.375 0.025 0
 0.4 0.025 0
 0.425 0.025 0
 0.45 0.025 0
 0.475 0.025 0
 0.5 0.025 0
 0.525 0.025 0
 0.55 0.025 0
 0.575 0.025 0
 0.6 0.025 0
 0 0.05 0
 0.025 0.05 0
 0.05 0.05 0
 0.075 0.05 0
 0.1 0.05 0
 0.125 0.05 0
 0.15 0.05 0
 0.175 0.05 0
 0.2 0.05 0
 0.225 0.05 0
 0.25 0.05 0
 0.275 0.05 0
 0.3 0.05 0
 0.325 0.05 0
 0.35 0.05 0
 0.375 0.05 0
 0.4 0.05 0
 0.425 0.05 0
 0.45 0.05 0
 0.475 0.05 0
 0.5 0.05 0
 0.525 0.05 0
 0.55 0.05 0
 0.575 0.05 0
 0.6 0.05 0
 0 0.075 0
 0.025 0.075 0
 0.05 0.075 0
 0.075 0.075 0
 0.1 0.075 0
 0.125 0.075 0
 0.15 0.075 0
 0.175 0.075 0
 0.2 0.075 0
 0.225 0.075 0
 0.25 0.075 0
 0.275 0.075 0
 0.3 0.075 0
 0.325 0.075 0
 0.35 0.075 0
 0.375 0.075 0
 0.4 0.075 0
 0.425 0.075 0
 0.45 0.075 0
 0.475 0.075 0
 0.5 0.075 0
 0.525 0.075 0
 0.55 0.075 0
 0.575 0.075 0
 0.6 0.075 0
 0 0.1 0
 0.025 0.1 0
 0.05 0.1 0
 0.075 0.1 0
 0.1 0.1 0
 0.125 0.1 0
 0.15 0.1 0
 0.175 0.1 0
 0.2 0.1 0
 0.225 0.1 0
 0.25 0.1 0
 0.275 0.1 0
 0.3 0.1 0
 0.325 0.1 0
 0.35 0.1 0
 0.375 0.1 0
 0.4 0.1 0
 0.425 0.1 0
 0.45 0.1 0
 0.475 0.1 0
 0.5 0.1 0
 0.525 0.1 0
 0.55 0.1 0
 0.575 0.1 0
 0.6 0.1 0
 0 0.125 0
 0.025 0.125 0
 0.05 0.125 0
 0.075 0.125 0
 0.1 0.125 0
 0.125 0.125 0
 0.15 0.125 0
 0.175 0.125 0
 0.2 0.125 0
 0.225 0.125 0
 0.25 0.125 0
 0.275 0.125 0
 0.3 0.125 0
 0.325 0.125 0
 0.35 0.125 0
 0.375 0.125 0
 0.4 0.125 0
 0.425 0.125 0
 0.45 0.125 0
 0.475 0.125 0
 0.5 0.125 0
 0.525 0.125 0
 0.55 0.125 0
 0.575 0.125 0
 0.6 0.125 0
 0 0.15 0
 0.025 0.15 0
 0.05 0.15 0
 0.075 0.15 0
 0.1 0.15 0
 0.125 0.15 0
 0.15 0.15 0
 0.175 0.15 0
 0.2 0.15 0
 0.225 0.15 0
 0.25 0.15 0
 0.275 0.15 0
 0.3 0.15 0
 0.325 0.15 0
 0.35 0.15 0
 0.375 0.15 0
 0.4 0.15 0
 0.425 0.15 0
 0.45 0.15 0
 0.475 0.15 0
 0.5 0.15 0
 0.525 0.15 0
 0.55 0.15 0
 0.575 0.15 0
 0.6 0.15 0
 0 0.175 0
 0.025 0.175 0
 0.05 0.175 0
 0.075 0.175 0
 0.1 0.175 0
 0.125 0.175 0
 0.15 0.175 0
 0.175 0.175 0
 0.2 0.175 0
 0.225 0.175 0
 0.25 0.175 0
 0.275 0.175 0
 0.3 0.175 0
 0.325 0.175 0
 0.35 0.175 0
 0.375 0.175 0
 0.4 0.175 0
 0.425 0.175 0
 0.45 0.175 0
 0.475 0.175 0
 0.5 0.175 0
 0.525 0.175 0
 0.55 0.175 0
 0.575 0.175 0
 0.6 0.175 0
 0 0.2 0
 0.025 0.2 0
 0.05 0.2 0
 0.075 0.2 0
 0.1 0.2 0
 0.125 0.2 0
 0.15 0.2 0
 0.175 0.2 0
 0.2 0.2 0
 0.225 0.2 0
 0.25 0.2 0
 0.275 0.2 0
 0.3 0.2 0
 0.325 0.2 0
 0.35 0.2 0
 0.375 0.2 0
 0.4 0.2 0
 0.425 0.2 0
 0.45 0.2 0
 0.475 0.2 0
 0.5 0.2 0
 0.525 0.2 0
 0.55 0.2 0
 0.575 0.2 0
 0.6 0.2 0

CELL_DATA 192
SCALARS chi double
LOOKUP_TABLE default
 0.343596
 0.349821
 0.359215
 0.368249
 0.37505
 0.379465
 0.382105
 0.38362
 0.384474
 0.384956
 0.385239
 0.385424
 0.385581
 0.385769
 0.386058
 0.386562
 0.387477
 0.389188
 0.392443
 0.399091
 0.413476
 0.455575
 0.714618
 1
 0.346989
 0.353171
 0.362213
 0.370546
 0.376567
 0.380371
 0.38262
 0.383906
 0.384631
 0.38504
 0.385279
 0.385436
 0.38557
 0.385729
 0.385975
 0.386402
 0.387182
 0.388619
 0.391413
 0.396603
 0.409433
 0.428048
 0.624055
 0.630523
 0.354866
 0.360761
 0.368688
 0.375221
 0.379501
 0.382074
 0.383579
 0.384438
 0.384921
 0.385194
 0.385354
 0.385459
 0.385548
 0.385655
 0.38582
 0.386108
 0.386627
 0.387604
 0.389378
 0.393147
 0.39916
 0.421965
 0.446353
 0.470767
 0.370234
 0.374906
 0.379663
 0.382281
 0.383563
 0.384353
 0.384852
 0.385136
 0.385302
 0.385396
 0.385451
 0.385488
 0.38552
 0.385558
 0.385618
 0.385722
 0.385914
 0.386261
 0.386967
 0.388152
 0.391303
 0.396069
 0.400195
 0.400346
 0.400909
 0.401045
 0.396592
 0.391173
 0.388157
 0.386928
 0.38624
 0.385899
 0.385714
 0.385614
 0.385557
 0.38552
 0.385489
 0.385453
 0.385398
 0.385306
 0.385141
 0.384856
 0.384343
 0.383541
 0.382157
 0.379347
 0.374499
 0.370186
 0.471085
 0.452619
 0.420042
 0.399244
 0.392965
 0.389308
 0.387557
 0.386605
 0.342352
 0.385816
 0.385654
 0.385549
 0.38546
 0.385356
 0.385195
 0.384921
 0.384435
 0.383566
 0.382042
 0.379428
 0.375074
 0.368473
 0.360617
 0.354895
 0.676601
 0.587339
 0.427559
 0.408614
 0.396342
 0.391271
 0.388558
 0.387153
 0.386391
 0.385971
 0.385729
 0.385571
 0.385438
 0.385281
 0.38504
 0.384628
 0.383897
 0.382596
 0.380322
 0.376475
 0.370406
 0.362068
 0.353114
 0.34705
 1
 0.543725
 0.449955
 0.41152
 0.398643
 0.392276
 0.389118
 0.387448
 0.38655
 0.386055
 0.385769
 0.385583
 0.385426
 0.38524
 0.384956
 0.384469
 0.383607
 0.382076
 0.379407
 0.374951
 0.368117
 0.3591
 0.349796
 0.343667

POINT_DATA 225
VECTORS displacements double
 0 -0.000395133 0
 -4.9447e-08 -0.000393481 0
 -8.43272e-08 -0.000388753 0
 -9.83569e-08 -0.000381524 0
 -9.42706e-08 -0.000372503 0
 -7.88726e-08 -0.000362326 0
 -5.82253e-08 -0.000351456 0
 -3.57708e-08 -0.000340192 0
 -1.25625e-08 -0.000328707 0
 1.198e-08 -0.000317098 0
 3.95569e-08 -0.000305421 0
 7.28246e-08 -0.000293704 0
 1.15531e-07 -0.00028196 0
 1.72945e-07 -0.000270194 0
 2.52661e-07 -0.000258402 0
 3.66039e-07 -0.000246569 0
 5.30796e-07 -0.000234666 0
 7.76374e-07 -0.000222639 0
 1.15471e-06 -0.000210372 0
 1.77021e-06 -0.000197715 0
 2.84155e-06 -0.000184081 0
 4.95696e-06 -0.000169573 0
 9.50678e-06 -0.000148418 0
 2.16868e-05 -0.000134047 0
 5.19713e-05 0 0
 0 -0.000395907 0
 -5.12324e-08 -0.000394198 0
 -8.60638e-08 -0.000389323 0
 -9.84797e-08 -0.00038192 0
 -9.26784e-08 -0.000372751 0
 -7.64467e-08 -0.00036247 0
 -5.59387e-08 -0.000351538 0
 -3.43041e-08 -0.000340237 0
 -1.23535e-08 -0.000328732 0
 1.05761e-08 -0.000317112 0
 3.61239e-08 -0.000305429 0
 6.67522e-08 -0.000293709 0
 1.05856e-07 -0.000281964 0
 1.58108e-07 -0.000270199 0
 2.30074e-07 -0.00025841 0
 3.31189e-07 -0.000246583 0
 4.7534e-07 -0.000234692 0
 6.83111e-07 -0.000222682 0
 9.85669e-07 -0.000210468 0
 1.42562e-06 -0.000197824 0
 2.06173e-06 -0.00018458 0
 2.88181e-06 -0.000169282 0
 3.73679e-06 -0.000153604 0
 2.61045e-06 -0.000119527 0
 -5.23399e-06 -0.000114153 0
 0 -0.000398294 0
 -5.69648e-08 -0.000396393 0
 -9.10601e-08 -0.000391043 0
 -9.78655e-08 -0.000383093 0
 -8.67698e-08 -0.000373471 0
 -6.83572e-08 -0.000362885 0
 -4.86048e-08 -0.000351771 0
 -2.95938e-08 -0.000340367 0
 -1.14106e-08 -0.000328803 0
 6.83059e-09 -0.000317152 0
 2.65909e-08 -0.000305452 0
 4.97997e-08 -0.000293724 0
 7.89205e-08 -0.000281977 0
 1.17129e-07 -0.000270214 0
 1.68558e-07 -0.000258433 0
 2.38572e-07 -0.000246623 0
 3.33873e-07 -0.000234763 0
 4.62181e-07 -0.000222816 0
 6.29731e-07 -0.000210701 0
 8.36123e-07 -0.000198314 0
 1.04965e-06 -0.000185296 0
 1.18513e-06 -0.000171647 0
 9.17081e-07 -0.000154998 0
 -1.9197e-07 -0.000139388 0
 -2.65225e-06 -0.000131453 0
 0 -0.000402497 0
 -6.79045e-08 -0.000400212 0
 -9.81844e-08 -0.000393935 0
 -9.29328e-08 -0.000384979 0
 -7.29712e-08 -0.000374586 0
 -5.23395e-08 -0.000363516 0
 -3.50267e-08 -0.000352122 0
 -2.08997e-08 -0.000340561 0
 -8.95828e-09 -0.000328911 0
 1.95315e-09 -0.000317212 0
 1.29912e-08 -0.000305487 0
 2.53114e-08 -0.000293746 0
 4.01263e-08 -0.000281996 0
 5.87314e-08 -0.000270237 0
 8.24501e-08 -0.000258467 0
 1.12374e-07 -0.000246682 0
 1.48686e-07 -0.000234871 0
 1.88994e-07 -0.000223011 0
 2.25093e-07 -0.000211069 0
 2.35137e-07 -0.000198966 0
 1.73423e-07 -0.000186653 0
 -5.94092e-08 -0.000173855 0
 -6.17605e-07 -0.000160966 0
 -1.65866e-06 -0.00015026 0
 -3.29567e-06 -0.000146125 0
 0 -0.000408944 0
 -8.64798e-08 -0.000405932 0
 -1.03112e-07 -0.000398001 0
 -7.53522e-08 -0.000387429 0
 -4.50992e-08 -0.000375955 0
 -2.5432e-08 -0.000364274 0
 -1.39914e-08 -0.000352541 0
 -7.60684e-09 -0.000340791 0
 -4.23659e-09 -0.000329037 0
 -2.58406e-09 -0.000317283 0
 -2.01217e-09 -0.000305528 0
 -2.29026e-09 -0.000293773 0
 -3.54153e-09 -0.000282018 0
 -6.29441e-09 -0.000270263 0
 -1.1703e-08 -0.000258508 0
 -2.20079e-08 -0.000246753 0
 -4.14168e-08 -0.000234998 0
 -7.76263e-08 -0.000223244 0
 -1.44536e-07 -0.000211493 0
 -2.65986e-07 -0.00019976 0
 -4.81648e-07 -0.000188077 0
 -8.49248e-07 -0.000176621 0
 -1.42863e-06 -0.000166125 0
 -2.24881e-06 -0.000158346 0
 -3.28197e-06 -0.00015541 0
 0 -0.000418497 0
 -1.15541e-07 -0.000414041 0
 -9.06626e-08 -0.000403105 0
 -2.84249e-08 -0.000390119 0
 4.04433e-09 -0.00037737 0
 1.41183e-08 -0.000365055 0
 1.45539e-08 -0.000352962 0
 9.85056e-09 -0.000341022 0
 2.87629e-09 -0.000329164 0
 -5.6442e-09 -0.000317354 0
 -1.5851e-08 -0.000305569 0
 -2.85625e-08 -0.0002938 0
 -4.51587e-08 -0.00028204 0
 -6.76981e-08 -0.00027029 0
 -9.91833e-08 -0.000258549 0
 -1.44017e-07 -0.000246824 0
 -2.08695e-07 -0.000235125 0
 -3.02806e-07 -0.000223476 0
 -4.40287e-07 -0.000211916 0
 -6.40763e-07 -0.000200527 0
 -9.29838e-07 -0.000189468 0
 -1.33469e-06 -0.000179106 0
 -1.87214e-06 -0.000170214 0
 -2.53634e-06 -0.000164017 0
 -3.29176e-06 -0.000161773 0
 0 -0.000433142 0
 -1.4725e-07 -0.000425273 0
 -1.14288e-08 -0.000408609 0
 7.20019e-08 -0.000392387 0
 7.45655e-08 -0.000378683 0
 6.48609e-08 -0.00036571 0
 4.71877e-08 -0.000353327 0
 2.91544e-08 -0.000341218 0
 1.12456e-08 -0.000329273 0
 -6.88515e-09 -0.000317414 0
 -2.66141e-08 -0.000305604 0
 -4.9818e-08 -0.000293822 0
 -7.89578e-08 -0.000282059 0
 -1.17231e-07 -0.000270312 0
 -1.68857e-07 -0.000258584 0
 -2.39435e-07 -0.000246884 0
 -3.36383e-07 -0.000235233 0
 -4.6935e-07 -0.000223672 0
 -6.50443e-07 -0.000212272 0
 -8.93862e-07 -0.000201166 0
 -1.21403e-06 -0.000190599 0
 -1.62109e-06 -0.00018101 0
 -2.11485e-06 -0.000173109 0
 -2.68116e-06 -0.000167809 0
 -3.29195e-06 -0.00016593 0
 0 -0.000457514 0
 -7.50017e-08 -0.000441429 0
 2.74911e-07 -0.000410734 0
 1.99554e-07 -0.000394533 0
 1.61605e-07 -0.000379447 0
 1.13339e-07 -0.000366189 0
 7.64114e-08 -0.000353564 0
 4.52662e-08 -0.000341352 0
 1.84354e-08 -0.000329344 0
 -6.89078e-09 -0.000317454 0
 -3.32642e-08 -0.000305627 0
 -6.35018e-08 -0.000293837 0
 -1.00825e-07 -0.000282072 0
 -1.49146e-07 -0.000270327 0
 -2.13359e-07 -0.000258607 0
 -2.99625e-07 -0.000246924 0
 -4.15609e-07 -0.000235306 0
 -5.70517e-07 -0.000223803 0
 -7.74721e-07 -0.000212508 0
 -1.03859e-06 -0.000201587 0
 -1.37015e-06 -0.000191327 0
 -1.77168e-06 -0.00018219 0
 -2.23693e-06 -0.000174828 0
 -2.75096e-06 -0.000169989 0
 -3.29204e-06 -0.000168295 0
 0 -0.000544515 0
 1.2502e-06 -0.000432719 0
 4.95529e-07 -0.000414824 0
 3.41355e-07 -0.000394557 0
 2.08878e-07 -0.000379894 0
 1.39386e-07 -0.000366317 0
 8.90422e-08 -0.000353657 0
 5.20372e-08 -0.000341396 0
 2.13655e-08 -0.00032937 0
 -6.69131e-09 -0.000317468 0
 -3.54861e-08 -0.000305635 0
 -6.82061e-08 -0.000293843 0
 -1.08371e-07 -0.000282076 0
 -1.6014e-07 -0.000270333 0
 -2.28622e-07 -0.000258615 0
 -3.20138e-07 -0.000246938 0
 -4.42385e-07 -0.000235331 0
 -6.04346e-07 -0.000223849 0
 -8.15723e-07 -0.000212591 0
 -1.08556e-06 -0.000201734 0
 -1.41983e-06 -0.000191577 0
 -1.81861e-06 -0.000182588 0
 -2.27421e-06 -0.000175397 0
 -2.77187e-06 -0.000170702 0
 -3.29202e-06 -0.000169064 0
