# vtk DataFile Version 2.0
Thermodynamics Topology Optimzation
ASCII

DATASET STRUCTURED_GRID
DIMENSIONS 5 5 1
POINTS 25 float
 0 0 0
 0.25 0 0
 0.5 0 0
 0.75 0 0
 1 0 0
 0 0.25 0
 0.25 0.25 0
 0.5 0.25 0
 0.75 0.25 0
 1 0.25 0
 0 0.5 0
 0.25 0.5 0
 0.5 0.5 0
 0.75 0.5 0
 1 0.5 0
 0 0.75 0
 0.25 0.75 0
 0.5 0.75 0
 0.75 0.75 0
 1 0.75 0
 0 1 0
 0.25 1 0
 0.5 1 0
 0.75 1 0
 1 1 0

CELL_DATA 16
SCALARS chi double
LOOKUP_TABLE default
 0.319659
 0.334865
 0.37993
 0.817495
 0.329411
 0.339139
 0.369565
 0.354033
 0.36095
 0.364376
 0.33786
 0.329603
 0.755935
 0.353763
 0.33373
 0.319686

POINT_DATA 25
VECTORS displacements double
 0 -0.000178383 0
 2.27349e-06 -0.00017265 0
 6.6698e-06 -0.000151952 0
 1.85554e-05 -0.000135226 0
 4.84229e-05 0 0
 0 -0.000181986 0
 5.34644e-07 -0.000174314 0
 1.08839e-06 -0.000157617 0
 -3.94087e-07 -0.00012026 0
 -8.67948e-06 -0.000113438 0
 0 -0.000192406 0
 -5.84024e-07 -0.000182982 0
 -1.28537e-06 -0.000159916 0
 -2.91452e-06 -0.000138323 0
 -6.0323e-06 -0.000128797 0
 0 -0.000214844 0
 -1.1075e-06 -0.000197265 0
 -2.06559e-06 -0.000163404 0
 -3.92472e-06 -0.000146457 0
 -6.30432e-06 -0.000139266 0
 0 -0.00030114 0
 4.02653e-08 -0.000188144 0
 -2.14465e-06 -0.00016801 0
 -4.08877e-06 -0.000148451 0
 -6.39071e-06 -0.000142676 0
