# vtk DataFile Version 2.0
Thermodynamics Topology Optimzation
ASCII
DATASET STRUCTURED_POINTS
DIMENSIONS 8 8 1
SPACING 0.125 0.125 1
ORIGIN 0 0 0
POINT_DATA 64
SCALARS chi double 1
LOOKUP_TABLE default
0.394519
0.380108
0.383827
0.38921
0.400525
0.433005
0.632099
1
0.374827
0.382458
0.383009
0.38748
0.397468
0.411846
0.562656
0.567642
0.374519
0.380983
0.381754
0.38492
0.389673
0.407297
0.426107
0.444885
0.38994
0.378046
0.380499
0.381279
0.383782
0.387487
0.390666
0.390758
0.383471
0.380445
0.378518
0.378016
0.376867
0.374682
0.370927
0.367576
0.381051
0.379443
0.377336
0.374962
0.371501
0.366343
0.360253
0.355819
0.37977
0.378466
0.376157
0.372807
0.36794
0.361423
0.354479
0.349782
0.37918
0.377925
0.375475
0.371678
0.366194
0.359139
0.351923
0.347178
