# vtk DataFile Version 2.0
Thermodynamics Topology Optimzation
ASCII
DATASET STRUCTURED_POINTS
DIMENSIONS 6 2 1
SPACING 0.5 0.5 1
ORIGIN 0 0 0
POINT_DATA 12
SCALARS chi double 1
LOOKUP_TABLE default
0.260002
0.328036
0.321107
0.322015
0.343797
0.89407
0.782088
0.320056
0.321801
0.32154
0.331462
0.254025
