# vtk DataFile Version 2.0
Thermodynamics Topology Optimzation
ASCII
DATASET STRUCTURED_POINTS
DIMENSIONS 6 2 1
SPACING 0.5 0.5 1
ORIGIN 0 0 0
POINT_DATA 12
SCALARS chi double 1
LOOKUP_TABLE default
0.216005
0.29913
0.290184
0.291349
0.319924
1
1
0.288838
0.291075
0.29074
0.303597
0.209161
