# vtk DataFile Version 2.0
Thermodynamics Topology Optimzation
ASCII
DATASET STRUCTURED_POINTS
DIMENSIONS 6 2 1
SPACING 0.5 0.5 1
ORIGIN 0 0 0
POINT_DATA 12
SCALARS chi double 1
LOOKUP_TABLE default
0.149541
0.319023
0.297081
0.299884
0.373965
1
1
0.293864
0.299222
0.298416
0.330354
0.138648
